LAMMPS data file via write_data, version 23 Jun 2022, timestep = 635016

1383 atoms
3 atom types

0.23064498645791787 26.919355013542045 xlo xhi
0.23064498645791787 26.919355013542045 ylo yhi
0.276773983751486 32.303226016248026 zlo zhi

Masses

1 28.0855
2 15.9994
3 1.008

Atoms # charge

26 2 -0.4589968336977798 1.6494302447640667 0.6748785379656241 0.37468335931990826 0 0 1
5 1 0.2730788077395801 1.619722241515042 1.591931054371268 1.5985570223602212 0 0 0
9 1 0.0004853709638712664 0.3126095360451953 2.6660411665950505 8.210741529568269 0 0 0
7 1 0.001392310632997232 2.951899273266775 2.918990173586686 5.597331346886986 0 0 0
8 1 -0.01378934423542474 1.6370759860775987 1.4780274996728218 6.800255793191742 0 0 0
12 1 0.005570938871344716 2.9625368905353464 2.665826958906551 10.832516220095949 0 0 0
15 1 -0.0009656699551876743 1.6361457948317406 1.3303398803182946 12.150220556939638 0 0 0
17 1 0.3953809905867732 3.009170723141641 2.3907866731409864 15.931165965311708 0 0 0
13 1 0.01007423542234235 0.2969558959148664 2.624293242925488 13.425739043520034 0 0 0
19 1 0.2142967967992349 2.5577345754598677 0.9250216690130506 17.657124182660823 0 0 0
20 2 -0.5177428834976104 1.425562216621323 0.5188979368091798 16.65705998952057 0 0 0
16 1 1.061903325586808 1.240461539486907 1.796970335213178 19.48205881933823 0 0 0
46 2 -0.7667045661512255 2.0087102135748887 3.0945638796485144 19.892779283631352 0 0 0
21 1 1.588118548997575 1.7035077258519795 1.7955959108052422 23.95867155785426 0 0 0
211 2 -0.7893517502624664 3.2133093784368136 1.8544155368554547 23.61392078311197 0 0 0
23 2 -0.7558591902334243 0.7998059240320698 1.6451644503451255 22.702552676382876 0 0 0
1241 2 -0.7195994523051399 0.8995537455009854 0.6574979726712128 20.53315007892573 1 0 0
1375 2 -0.8519346091601564 1.475577496561631 0.4170128655400154 24.667880727629242 1 1 0
168 1 0.3707581574430378 1.4911534553369443 3.351343379594721 27.360523583587014 0 1 0
48 2 -0.8273628510252843 1.1980769542492726 3.1129268970255297 24.60216245186247 0 0 0
324 2 -0.5375478227010168 2.8322525000540475 0.5688750206988795 29.138204642830292 0 1 0
4 1 0.0147430628417579 2.919013947193164 2.9501972704657056 32.291309551917955 0 0 -1
33 1 0.01460812634610566 0.26155190243933973 5.59423014137189 0.2986208009525656 0 0 0
34 1 0.02340829705458312 2.896993246930758 5.5202884609965075 2.935260620748261 0 0 0
57 1 0.01489424686230613 1.5660889125065376 6.876533710213381 1.62012548372197 0 0 0
38 1 0.0002254255540479685 2.893247416096383 5.476288818802946 8.152986757390037 0 0 0
60 1 -0.009599282423202161 1.5662640296947967 6.854406083218869 6.852695340485724 0 0 0
35 1 -0.004195382063800032 1.5744852208548592 4.228756547874745 4.280343581862871 0 0 0
37 1 0.002079596379520293 1.6916664204845924 3.9939975735369058 9.458385081139165 0 0 0
39 1 -0.004281688382520528 0.3743344867222195 5.290142154463818 10.809528484076456 0 0 0
65 1 -0.0129070056073983 1.6683001063984049 6.582517646457951 12.193424535440302 0 0 0
41 1 0.01999067505914507 3.0418429363611184 5.321030810634306 13.551581655502392 0 0 0
40 1 -0.04803458786205443 1.7054263612331386 3.8492142905560462 14.7190334859215 0 0 0
207 1 1.664185824049903 2.8402970015534343 4.367366969426372 19.51798394210799 0 0 0
44 2 -0.8816486530832321 2.1566550236050914 5.216373363404516 18.430518157706178 0 0 0
1257 2 -0.7436573533411019 0.5916686707866636 5.906521047968494 16.642922831167922 1 0 0
201 1 1.580199418622965 1.493027322645623 6.444019278480928 17.775059311004625 0 0 0
28 2 -0.7720670986529554 1.902568205360708 5.634205039528725 24.042137591731024 0 0 0
73 2 -0.8690482193316964 3.3885156388345696 5.416002904515231 20.50981490684541 0 0 0
1243 2 -0.5637097677751126 1.4044799270728652 4.763094797852193 26.70338132110035 1 0 0
190 1 0.690191356195341 1.7867971222583239 6.6159705924194 27.780903814204276 0 0 0
45 1 1.371794369655834 0.9305523253764554 4.629327445279407 24.73253017056098 0 0 0
27 2 -0.5577145392534739 3.234553310421997 6.3021328312491285 28.182568554117264 0 0 0
215 1 0.01485398897692399 1.730836822390319 4.465939246969712 30.994160086880765 0 0 0
75 1 0.2760469490931015 3.1759451267343164 5.22552580035937 29.30183993707664 0 0 0
328 1 0.2518399321852015 0.3423332237507539 4.060285067044266 29.222131714460005 0 1 0
52 2 -0.4574275696780235 3.211997965885626 7.908900338156775 3.7764813877148957 0 0 1
56 1 0.6066957611542316 2.9415326008848313 8.176547618132467 0.295552032061301 0 0 0
59 1 0.1205930542693939 2.876862509858313 8.248541510810272 5.578619633514457 0 0 0
61 1 0.005564399947303032 0.25084825456261634 8.089910553187948 8.261259029134841 0 0 0
58 1 0.06195484390528688 1.5211155502482092 9.610924968424706 4.282449838912373 0 0 0
62 1 0.00453573925070188 1.6868719725707182 9.374695169121617 9.493398035507742 0 0 0
63 1 0.001796584210084315 2.9176460931577424 7.981360335895184 10.856720395949203 0 0 0
66 1 -0.03970070638034 1.6098970681246103 9.268796021527947 14.659688945352503 0 0 0
67 1 0.3195182324785597 3.179928362264321 8.206012086523389 15.937105302664593 0 0 0
64 1 0.00779080171951984 0.264688953641196 7.884273675594957 13.425468930962666 0 0 0
68 2 -0.6812817554389393 2.399920426197462 7.532915373261966 17.108543917013463 0 0 0
1274 2 -0.8042422640401196 0.610366469720923 7.180958166918025 18.796026836429565 1 0 0
71 1 1.567480715689548 2.2773998949514103 8.634921837623075 21.31959904169674 0 0 0
1279 2 -0.8102414889927358 2.0034169963790327 7.762375136330516 22.592536813609136 1 0 0
232 2 -0.8861170862994521 3.499919148193836 7.912147951348961 20.678815195828562 0 0 0
69 1 1.194602700109587 2.653124606728358 6.969800516710153 23.752037779245363 0 0 0
1280 2 -0.839880642854274 1.0649005186741958 8.967055049116585 20.406201681508854 1 0 0
228 2 -0.7569018427414058 2.7847986964533047 10.024019371475406 21.793913853536896 0 0 0
235 1 0.5868914775640092 2.6275639787496203 8.46603670584992 26.43741948911717 0 0 0
1283 2 -0.7040791182952792 2.8414488842590617 7.8801927429438665 24.995809566807097 1 0 0
49 2 -0.5924460081920004 2.880770909099775 9.634358765435437 27.47606662508412 0 0 0
77 2 -0.5646653582636568 1.7441511440779658 8.935797919072284 31.6905763433415 0 0 0
54 2 -0.6256498949022061 1.233079256005242 7.490738047839295 28.93486374332594 0 0 0
1286 1 0.2266604080066093 1.4148212507106168 9.97237018617273 30.578784131208646 1 0 0
78 1 0.0908883477473422 0.2869208273389928 10.95670846089072 0.2965400775438312 0 0 0
79 1 0.02929615640696554 2.900047493211228 10.903678465343756 2.9492963333024393 0 0 0
80 1 0.0102937172143057 1.5702530232685425 12.230270670667721 1.6541952293983833 0 0 0
95 1 -0.02680293122848936 2.9014193451355634 13.525103520580844 0.37890635428045205 0 0 0
101 1 -0.001719946222061536 0.28486233308979436 13.45341923071587 8.20825157103143 0 0 0
82 1 -6.492285127626674e-05 1.5870893584868464 12.202806773284829 6.834390338179199 0 0 0
99 1 0.002173249444972034 2.9015412602055632 13.572801964133378 5.55573395393765 0 0 0
83 1 0.005463906422165946 2.8883737856348883 10.848961016602209 8.167681616346634 0 0 0
86 1 0.005389724147160616 1.7279205800764994 12.004032372251812 12.076122449226476 0 0 0
84 1 0.008905611442542864 0.37586991061285724 10.699306506989968 10.778335133594485 0 0 0
104 1 0.005869924883270518 2.9868442288392387 13.466748464223622 10.8097048282397 0 0 0
85 1 -0.01422641314414475 2.9830217206913914 10.590862944257024 13.381744924082312 0 0 0
106 1 -0.01838270089310083 0.34363373013884085 10.55073507555601 16.031736276150713 0 0 0
111 1 0.008207173167320499 2.835846434256914 13.171724463314996 15.829234443953538 0 0 0
1315 1 -0.01278597890037326 0.2775932687598292 13.199408766361678 13.356481490174755 1 0 0
266 1 0.002520581448979348 1.4115086616556098 12.125932158959424 17.26151581892538 0 0 0
88 1 0.3392528540334042 2.8911817682974066 10.95652085456497 18.661961251744604 0 0 0
248 1 0.7443136086084541 2.424535310784719 11.358446208713426 22.46643227879527 0 0 0
418 2 -0.6306142717991132 3.4242565250933827 11.597501952279853 23.64552135939064 0 0 0
231 1 0.07048931984599456 0.571302846144489 10.55921416769695 23.620596177978282 0 0 0
90 1 0.2549251714498441 1.1939197508554529 11.887455797869416 27.4774435813361 0 0 0
237 1 0.2527745885991396 3.3376136848100573 11.112784978244765 27.811283851260523 0 0 0
91 1 0.3315371489651818 1.1092599167928352 10.263375542411662 25.776735699395637 0 0 0
115 2 -0.4879598949770045 1.6463192030017133 13.307803247609279 26.984569902871712 0 0 0
92 2 -0.5737039810955141 0.7264034672555705 13.545156658125476 30.62944688538959 0 0 0
97 1 0.01050196919983553 2.9014090960964873 16.24506539404425 2.950524408807549 0 0 0
96 1 0.01428042387946283 0.3103904454641307 16.209933158671674 0.30694499061913205 0 0 0
98 1 0.0008253020891166446 1.5546742056913883 14.907302307192785 4.2663083629935095 0 0 0
103 1 0.006728479410909906 2.947630496371238 16.136918947589102 8.229176552697421 0 0 0
102 1 0.002822253273359263 1.625936518598643 14.770957940223942 9.503474566593232 0 0 0
105 1 0.00654270760277862 0.240785512604635 16.049367654939918 10.766432616182504 0 0 0
107 1 -0.008728840840298409 1.7197781500055342 14.540425739278476 14.457093162145513 0 0 0
108 1 -0.01666327800369101 3.028831241815641 16.023992839981602 13.30029761730924 0 0 0
110 1 -0.01673451226282511 0.5464459430748804 15.63657579761378 16.004121925265835 0 0 0
1337 2 -0.6127740042792451 2.28770709806172 16.331596702626435 19.985801054623824 1 0 0
1209 1 0.004992371051163347 2.1276923102586336 16.629001865015734 17.26145430448485 1 0 0
1301 2 -0.6299231201276815 3.5468209064439176 14.172973552337023 19.910344227814686 1 0 0
1147 2 -0.7125832238028875 1.8380341076552016 14.474625630201915 21.584814824850373 1 0 0
267 1 1.004700810963493 2.9882678485393805 15.260243240787176 20.882191885988153 0 0 0
1295 1 1.013820464783408 0.3883033817711435 13.913776136020399 21.46577553583633 1 0 0
131 1 1.080374206796765 2.0592370766246213 15.775806562975111 25.30213212487966 0 0 0
272 1 0.248367652829573 1.5017935705818781 14.851973817733995 27.369055901959108 0 0 0
114 2 -0.6016666844117199 1.0578503630676992 14.989776643723678 24.375566337948687 0 0 0
117 1 0.2671390935789076 1.5665411441860122 14.770219735627835 31.10591976704275 0 0 0
113 1 0.2710170328813444 2.9105549552325694 15.237234382905783 29.303223196308096 0 0 0
118 2 -0.5649748536027249 3.047824224241052 16.749956117921805 29.78402399959112 0 0 0
119 1 0.004563498340146223 0.23641786711242932 18.912655437947837 2.942377778539891 0 0 0
121 1 0.006969880227743041 1.5900691807105667 17.572560382997157 1.619335279863838 0 0 0
122 1 0.005646593443803041 2.8445703752142606 18.836380504983214 5.60079634216624 0 0 0
123 1 0.006335931003865113 1.567820606990182 17.425201826568763 6.916734268381691 0 0 0
124 1 0.004395415951686354 0.2742040022079106 18.816542891044776 8.172571397671522 0 0 0
139 1 -0.004708493777504617 1.5667282260944495 20.242530950806174 4.281926807644614 0 0 0
125 1 0.003609028734798826 3.0642786641987882 18.731878120150707 10.741636559327743 0 0 0
127 1 0.0005084093336358494 1.7249256000611723 17.319297760706508 11.969383565738099 0 0 0
142 1 0.01020054227333834 1.6651308032021916 20.08916720044614 9.489853426364943 0 0 0
128 1 0.02993271674571445 2.824687187440704 18.45920092095173 16.1149033709491 0 0 0
126 1 0.001364579018476413 0.388607678526481 18.466706102008274 13.40001338259935 0 0 0
145 1 -0.03300200107744882 1.6109060180084094 19.81642788004637 14.753790161908654 0 0 0
463 1 0.2972616199344224 3.0967098082851323 19.54467178154647 18.141991743983517 0 0 0
1318 1 0.2824562835318212 1.0825675198187799 17.051936745204454 19.29647444457632 1 0 0
1344 1 0.3161362581448617 1.1365609156293264 18.473357219964072 21.19251574519543 1 0 0
152 2 -0.6353216851620669 2.657622911867983 19.69708149067317 23.427657971446884 0 0 0
132 1 0.2364275474537975 2.961240458945891 19.803427751874523 21.899743893874767 0 0 0
134 1 1.442277840780823 0.4548923636059582 18.325196313957655 25.72851201429471 0 0 0
116 2 -0.7679495649652109 1.3795405648883847 17.04351786580286 25.93316586880082 0 0 0
135 2 -0.7766194801485381 1.34980003906671 19.594873547034048 25.647716737104947 0 0 0
1365 1 -0.04552651641942875 1.1898222950046309 19.935778201403668 31.092993506110215 1 0 0
120 1 0.006935230822289973 2.875314200979984 18.92197371869817 32.24132045342632 0 0 -1
138 1 -0.01541706646455827 1.5631955268027826 22.884457638483973 1.6312503916599883 0 0 0
137 1 0.01138030616161633 2.902780713642348 21.575458746254988 2.94981354630727 0 0 0
141 1 0.003070985467364104 1.674737735813022 22.89182772523285 6.978503191204722 0 0 0
140 1 -0.000972685149839364 0.2914975390991165 21.622678173118246 5.61954902661039 0 0 0
143 1 -0.0007595426853075904 2.9948495780749003 21.45596245335894 8.214443333914929 0 0 0
147 1 -0.004771593113861508 1.683341766680951 22.580943220270917 12.211166533481634 0 0 0
144 1 -0.009294893314771367 0.31257243532136647 21.33246374224956 10.851824777052009 0 0 0
146 1 0.01959518332594044 3.032315301329553 21.226432430470908 13.547328602565774 0 0 0
167 2 -0.6597393924251898 2.7942098667506774 20.94162068752115 17.53207244193632 0 0 0
166 1 1.359712241268497 1.871467138024122 22.205109492450013 17.643671639294773 0 0 0
1340 2 -0.6537551705777288 0.5056817553254258 21.60347108792641 17.112744514383422 1 0 0
1376 2 -0.6708571093341945 2.2311966871111673 22.793395689211845 19.049775991465157 1 0 0
303 2 -0.6575599203685953 2.238357307402531 23.29688909004558 16.597444246166628 0 0 0
308 1 0.6398868890504843 2.4683278183015784 22.063467312794398 21.664803112080712 0 0 0
1338 2 -0.6762552650074093 0.9721762380088388 21.726591566934083 21.89698497431043 1 0 0
151 2 -0.7032088067155698 3.010760137637362 22.953085330634632 22.828272684574216 0 0 0
326 2 -0.7687052613631261 2.0796706238431844 21.936905336315814 24.786655558113907 0 0 0
284 1 1.515577529669471 2.383671406178495 20.394135119131587 24.815303667514453 0 0 0
171 1 1.420343475123539 2.7768263967697266 23.27607797688326 24.358261048370366 0 0 0
153 2 -0.7589150489533982 1.7510383976369177 22.461645367956645 29.73464994957581 0 0 0
1346 1 1.12130960053707 1.6228131293382353 21.039332322152976 29.067611405936756 1 0 0
1345 2 -0.731360740978161 3.049797982011576 20.46889189305304 28.84163837621862 1 0 0
1364 2 -0.7069351750095484 0.2375955748782165 20.748350087606305 28.46779057349731 1 0 0
313 1 1.040337570008359 2.8400562070803774 23.57568145289068 30.022126556378677 0 0 0
156 1 0.03762650028767817 0.2390652855865276 24.239226320853927 2.947825394511007 0 0 0
3 1 0.03077566787366037 2.9117895073942877 26.913288633753908 2.946372855187086 0 -1 0
159 1 -0.0172609182675047 2.937184483084792 24.25493146233304 5.631205529903988 0 0 0
1370 1 0.002229018105553336 0.24763963129157673 24.172971635935802 8.208363859663958 1 0 0
6 1 0.1199919939435892 0.23898459536874175 26.8702793044366 5.547483308465763 0 -1 0
10 1 0.003655835243331192 2.7810070086843224 26.79398054946938 8.256993683815157 0 -1 0
158 1 0.06478472751204387 1.6206283440491365 25.525611997417194 4.280935183287564 0 0 0
161 1 0.001548465333538016 1.5649543853928742 25.379107711262126 9.61194951858081 0 0 0
162 1 -0.002970272407258404 2.9538660404041734 23.969638820821658 10.835911894779503 0 0 0
11 1 0.007462780295303409 0.2658855679750382 26.692662139136658 10.917660786529133 0 -1 0
164 1 0.006503370876052413 1.6877808682972182 25.1916370228131 14.662115143504504 0 0 0
165 1 0.3516222696142728 3.2902957697977584 24.188504933066152 15.924966259424654 0 0 0
163 1 0.02629532276559456 0.2628040724525106 23.86693720088215 13.473681056409438 0 0 0
1237 1 0.2654144836674782 0.2961805697435757 26.380695713889004 15.974973266806524 1 -1 0
14 1 -0.01272421368419103 2.9425470923803654 26.602551180429653 13.375054624381876 0 -1 0
1341 1 0.2952774453685679 1.982780640300498 23.76404018982351 20.233194158459163 1 0 0
25 1 1.555894296294198 0.9017093997275455 25.711770026496673 24.22001269168057 0 -1 0
1245 2 -0.810072247675769 0.5139143553607116 25.94172801275713 22.699989267733194 1 -1 0
154 2 -0.8340095110491129 1.9587233994612638 24.604247663367286 24.54682429199302 0 0 0
173 1 0.2570711090777123 0.6274806082631454 25.30435612601131 30.657224889630402 0 0 0
1381 2 -0.4992556290090507 1.6779973223975215 24.976309968315405 31.76696559846225 1 0 0
155 2 -0.6631804965440977 2.8156886732496704 24.74630254635698 29.001731618859576 0 0 0
170 1 0.6358473648920684 1.9463434221265623 26.01709035747864 28.738752536256012 0 0 0
157 1 0.2987369199095645 2.8796682092720425 24.158500285920194 32.288528385349274 0 0 -1
174 1 -0.004646712476609985 5.633950751451243 0.23662904136293844 0.3003522472394357 0 0 0
175 1 -0.005521426795289823 5.5651849658644315 2.90342081494774 2.9477922239809398 0 0 0
176 1 -0.003956869269421327 4.24268905879268 1.565413168193941 4.272047075708956 0 0 0
179 1 0.0007293933627758528 5.582643333333285 2.750384565868347 8.277155850219657 0 0 0
178 1 0.008951287394350312 4.243332400710926 1.3250777015750999 9.516706507328232 0 0 0
182 1 0.0003083904555940958 5.593736895550084 2.68226862325364 13.363331412729764 0 0 0
181 1 -0.0332842984013634 4.388022847598679 1.1649348078613775 14.61945714686885 0 0 0
320 1 0.6552152374846753 6.752238735089725 1.378228768444011 17.31645934058783 0 1 0
72 2 -0.6731648138603784 5.7966379265056975 2.522074019073122 17.691826141390592 0 0 0
205 2 -0.6573977165344058 4.0281284401503745 3.4431125546092347 16.377360962622866 0 0 0
208 1 1.277324236547744 4.626902626546535 1.2520800089877355 23.55673118040907 0 0 0
188 2 -0.7004406208681251 5.311803327017135 1.9018759856017171 22.336448663346733 0 0 0
187 1 1.143025879297608 6.475711488061017 2.793148135065074 21.845978146006185 0 0 0
518 2 -0.6775261586832679 5.410834231314903 1.7684403698099191 24.813442366473343 0 1 0
192 2 -0.6098817886662454 6.613584502972635 2.885622183697298 26.762354508009214 0 0 0
189 1 0.6986886312179762 6.777509268030181 1.8642010943686842 25.574886047163737 0 0 0
1246 1 -0.02144870435030242 3.7401090029124653 3.3501276537912403 27.974128290522305 1 0 0
193 2 -0.5265776345075083 5.678588172276896 2.886649628343973 30.845339860358816 0 0 0
30 1 0.2926825034179357 4.548455868446011 1.8169649090209727 31.097618342179576 0 0 0
24 1 0.2902522902268554 4.240884067480516 1.2464397411993724 28.900891883440348 0 0 0
194 1 -0.003303214587071779 4.232416260812821 4.240122221259682 1.6192977571752525 0 0 0
195 1 -0.01643992200563232 5.583878860827924 5.5546594403456435 0.29044638574840875 0 0 0
218 1 0.2354713556702502 4.243741702791174 6.889424910317317 4.241732425906107 0 0 0
197 1 -0.03831984576012082 5.572986415091781 5.546820489883974 5.6143679105246385 0 0 0
196 1 0.004000301308382088 4.32038314986717 4.16197724046747 6.9643223595542025 0 0 0
198 1 0.003803909843068859 5.583565837118726 5.5005530557959235 10.828740760067218 0 0 0
199 1 0.006463078256883824 4.280539252997557 4.065151242410316 12.098038048134939 0 0 0
220 1 -0.003502555001799974 4.2509591608753405 6.779483682062477 9.459338704044912 0 0 0
200 1 -0.03780759851327301 6.0173495675897115 5.382700096417812 16.12001319984382 0 0 0
222 1 0.01334810855380874 4.480656290723501 6.606832182284756 14.866454171251233 0 0 0
203 1 1.112191211930528 4.937880401886988 3.78520207228165 17.549731253891423 0 0 0
43 2 -0.7989438102918708 4.1361920892952435 3.8981328350227713 18.84448871809946 0 0 0
204 2 -0.8605789807179733 5.359667115099347 6.872389963548447 19.420088567363464 0 0 0
348 2 -0.805136636162921 6.265828457276923 4.179317983306589 22.532571505413642 0 0 0
209 1 1.652611760800725 6.433588179309535 5.731014406110729 22.586743290762822 0 0 0
213 2 -0.789249361246658 6.371496573821786 6.411496397680797 23.99338997835384 0 0 0
206 2 -0.8944214000848991 5.277023545242366 6.399711781325634 21.80439707358053 0 0 0
70 1 1.678057637270376 4.367823880448654 6.623785387811417 20.581508750580728 0 0 0
233 2 -0.6429261151982772 5.699818565443666 5.292568314189845 26.2148964472377 0 0 0
212 1 0.7445333318631431 5.89473685679227 4.186506311162024 27.31426327994942 0 0 0
368 1 1.070454953954479 6.300980661734073 6.5606223473364995 25.538863695945615 0 0 0
570 2 -0.5114700097871107 6.1085455687560435 5.573214887471426 29.05112409440332 0 0 0
214 1 0.2893290072495959 6.742656862224796 4.016594256749829 31.123389196975577 0 0 0
236 1 0.4091261665808337 4.755324104748007 6.550232210539651 30.368805028361887 0 0 0
216 1 -0.01806083669083258 4.259206576973067 9.582972382494521 1.5981932982958293 0 0 0
217 1 0.03103285990351829 5.616518630812443 8.237110870706397 2.9269904878939155 0 0 0
219 1 -0.01509280699332134 4.25571291055462 9.531033854172726 6.887079744507527 0 0 0
221 1 0.0007963765651624391 5.5746204075118415 8.156804736012072 8.166757983754279 0 0 0
223 1 -0.001258511799938744 4.328228381478803 9.26818393317142 12.121261544932686 0 0 0
381 1 0.002008656769830669 6.887554608147693 9.522124200230836 9.442427584159978 0 0 0
224 1 -0.00512754660289462 5.714903936478418 8.01656460690127 13.48993590539571 0 0 0
229 2 -0.6495797788120075 5.114709062802913 8.696016502895892 17.6844929746495 0 0 0
226 1 1.185892963483518 6.072398677064557 7.99052184096818 18.639481368992218 0 0 0
225 1 0.3139011509572899 4.261260169535211 9.840670580532786 17.11394009015775 0 0 0
47 1 0.2893693489664995 4.996590146953578 8.162767329861584 26.841477361539585 0 0 0
253 2 -0.4867296787757177 5.492271882453111 9.53558658577075 26.243465375341714 0 0 0
398 1 0.3580086765563881 4.971027267128042 8.605413496632474 29.242370546871555 0 0 0
395 2 -0.5567125356991754 6.353208265435754 9.035520964515491 29.842447309337537 0 0 0
400 2 -0.5828404924203606 3.6664524059501327 7.208293213923072 31.31866010911351 0 0 0
239 1 -0.03821821324013912 5.581322166936708 10.928211277434603 0.3219972548148502 0 0 0
402 1 0.004601116622413789 6.891205864799043 12.257000890206495 1.63471479219568 0 0 0
240 1 0.004341376940105376 4.238036521526383 12.234151083508475 4.26675810893664 0 0 0
241 1 0.01088476832876553 5.558250285841321 10.890122590650245 5.5923704868906485 0 0 0
404 1 0.008282220034881507 6.898294783326119 12.215714334390833 6.891930247730078 0 0 0
261 1 0.002371765426964545 5.583197686457749 13.56856817290505 8.168001681982817 0 0 0
243 1 0.003902908196587895 4.259244058555143 12.176761206532106 9.436607975125272 0 0 0
242 1 -0.0009479552575249461 5.510372081873509 10.761852707058791 10.773571138256182 0 0 0
245 1 -0.00360022543995199 5.933646752880062 10.931444489052113 15.972135049703208 0 0 0
244 1 -0.007731331244873817 4.33409431931392 11.907331468326202 14.669203332975574 0 0 0
264 1 -0.0120745337956262 5.6232552143252885 13.299098985044672 13.397551498052268 0 0 0
149 1 0.7656200259937334 4.510295249248331 13.520059997377883 18.860893793780694 0 0 0
411 2 -0.5904978941377534 3.9444677315428764 12.094514434515911 18.524271932776944 0 0 0
249 1 0.7482977602079989 4.911909555766217 11.982014162458603 23.96669811536699 0 0 0
446 2 -0.5461137062019337 5.8699613096641015 11.12055566900813 23.041466567013906 0 0 0
414 1 0.7271343690426119 6.056080513267468 10.592839424224808 21.56426478240503 0 0 0
247 1 0.2845861240284334 6.19122537721256 12.571591544883002 20.308081329144063 0 0 0
252 2 -0.6717331825475032 6.082347030380283 12.017785145038138 26.888775804690766 0 0 0
234 1 0.6063527916679058 5.068071146027079 11.06318962409396 26.18714768787861 0 0 0
251 1 1.472218156897503 6.139222909784323 13.467512516448307 27.506401562764516 0 0 0
254 1 0.01276168872216531 4.262701750711873 12.242487313740543 31.111549662162705 0 0 0
76 1 0.01807146340590287 3.597082955878616 10.396361275393199 29.952784674188326 0 0 0
427 2 -0.6701545196739112 5.315421545582512 13.387646475576013 28.818015673254372 0 0 0
256 1 -0.04750722677748109 4.226536902367822 14.925192443743091 1.613387878619295 0 0 0
258 1 0.2870485998208564 5.661239164579529 16.202801043187897 0.29571118647687805 0 0 0
257 1 -0.008622540064521636 5.55895874488 13.582602359562586 2.9469430313341753 0 0 0
260 1 0.003588791798289741 5.583997142385474 16.247566633939353 5.584106624601099 0 0 0
259 1 0.003608851772380677 4.250993007036131 14.886741056673698 6.850000837760677 0 0 0
263 1 -0.0007948642471619985 4.407892265982287 14.713505343350093 12.093623867549345 0 0 0
262 1 0.00147685278594345 5.740053100326315 16.09818393704828 10.857810764120881 0 0 0
265 1 0.3451776639514987 5.231858320967095 15.692957221669973 15.673079834313874 0 0 0
109 1 0.02231166194231211 3.6584355794253276 14.860857441295193 17.05923661298891 0 0 0
246 2 -0.5190576388217482 6.269993495273523 13.603800250667918 17.598495181050225 0 0 0
419 2 -0.62663240993819 5.963387744002214 16.585937143103145 16.688696493725846 0 0 0
1320 2 -0.7555840830538411 5.666878043755359 16.75313241534466 19.464215207993337 1 0 0
89 2 -0.7474778013049319 5.288949717827193 14.113528742181101 24.100085400551205 0 0 0
444 1 1.275421274009474 6.610666347457602 14.468135615849834 22.54342553172551 0 0 0
420 2 -0.6279463301363691 6.096726388876935 13.700968521981029 21.336424315743905 0 0 0
465 2 -0.7498780872524904 6.769450605271223 15.853051911280811 21.841410504644962 0 0 0
447 1 1.556741129457144 5.073847218813364 15.131763936140473 25.254261653371568 0 0 0
273 2 -0.8470216187971747 5.34782157539355 14.410721886808163 26.580653277759584 0 0 0
274 2 -0.7760964078765893 3.6079407542575885 15.666976122482254 25.273910878366706 0 0 0
445 2 -0.7841259355772372 6.0972146426576055 16.304611529006156 25.016261986384595 0 0 0
255 1 0.3169640608013397 4.8990218937914465 14.166422199820285 30.073915256134693 0 0 0
277 1 0.02326227073363084 5.558636594335644 18.91583174030184 2.937756942288707 0 0 0
278 1 0.001697067966117842 4.232712774592342 17.57622296468275 4.272000718065363 0 0 0
478 1 0.004380805529576211 6.90130501646281 20.232290793402942 4.274594847027062 0 0 0
280 1 0.004236445339794476 5.593012849733545 18.8453631460983 8.186196830999487 0 0 0
295 1 0.001344482784353888 4.24901271996348 20.152532519824007 6.845847019426794 0 0 0
279 1 0.0006998066177139536 4.410417423990057 17.38809452822096 9.48532855297655 0 0 0
299 1 -0.0122516546031673 4.406097637420052 19.994197119872652 12.146598924466216 0 0 0
282 1 0.006574022905749682 5.78938231724703 18.703622856728106 13.498823832406917 0 0 0
281 1 -0.00268287466266514 4.266501984900206 17.418839002660338 14.634517751120807 0 0 0
129 2 -0.667921230539719 5.715975964326706 18.82402048321093 17.773643656576247 0 0 0
442 1 1.046339020300269 5.869231026445904 17.327395659180073 18.03395444957992 0 0 0
305 1 0.3175595819172208 5.256531023398516 20.20675050318092 18.256610281121944 0 0 0
500 2 -0.6324305520212937 5.358697695190544 18.107079534013558 21.735018359943947 0 0 0
150 1 1.030135129610094 6.087454940210865 16.949903729871526 20.95727078616938 0 0 0
468 1 0.6530038163632547 6.531021572274687 19.377751329679757 24.069755175129828 0 0 0
285 1 0.2545509165607598 5.27272251246541 19.638242802790124 22.093083765262552 0 0 0
288 1 0.7613637698620441 3.9998123614931953 17.881298277348275 30.363626620929438 0 0 0
275 2 -0.6442570990390682 5.247394018719232 19.423964882698705 29.401058823901963 0 0 0
1349 2 -0.5765362538029652 4.807342321867395 17.23484979526571 31.517899605555026 1 0 0
292 1 -0.007785667407411018 4.223859428202559 20.261565668983014 1.5811614533624927 0 0 0
294 1 0.006011938961759021 4.230681590585088 22.918927991872106 4.275650862133305 0 0 0
330 2 -0.5272607556990193 5.613277680487707 22.986571484701603 0.7636475527878119 0 0 1
296 1 -0.00338597526967882 5.545964625708602 21.548809127763185 5.5646057665403 0 0 0
298 1 0.008203053008253025 5.68564574399082 21.37950263279528 10.839540837127142 0 0 0
297 1 0.006556532932189392 4.381140307184207 22.732870711767198 9.508111639633626 0 0 0
300 1 -0.005816671957161908 4.473800649975482 22.527780475038938 14.838038038375963 0 0 0
464 1 0.3448471222921557 5.7875344649044616 21.127834509659447 16.17877344133959 0 0 0
494 2 -0.6314775238750168 6.798311118306468 22.199754417426753 16.692843490902288 0 0 0
306 1 -0.0729159878977421 6.489928273885859 20.250384810954746 20.21325683474966 0 0 0
186 2 -0.6669973161273471 5.942607529074051 23.575299265385777 20.77729822564719 0 -1 0
291 2 -0.7106532896941599 5.195358053211838 21.222074757273283 27.270777049556603 0 0 0
287 2 -0.6462903972548927 6.097157067079933 20.631756176289567 24.928123764448838 0 0 0
312 1 1.211230581406379 4.973926022728998 21.392183233913222 25.727251096827025 0 0 0
286 2 -0.7413517667315709 3.7834864208148637 20.42174928826208 25.49311609690527 0 0 0
528 2 -0.7068072779840933 4.223384323929108 23.2510144032302 25.04290708713115 0 0 0
290 1 0.389364479151398 5.493407500047079 22.33719423547557 30.031714412315164 0 0 0
521 2 -0.6951217677433215 4.118932480226208 22.843901496461452 30.357261423322512 0 0 0
289 1 1.042615678175239 4.592977516278104 20.597790657860084 28.58886416965337 0 0 0
293 1 0.4007926402869355 5.649594816918479 21.548798092848628 32.262938976130506 0 0 -1
314 1 0.05271230982239704 4.23125582879299 25.600906699181678 1.5851222536708518 0 0 0
315 1 0.02824617036256966 5.5603453922012145 24.274815986573902 2.967801007915503 0 0 0
316 1 0.001029902966739091 4.238907941859054 25.58050869605266 6.969913482271739 0 0 0
317 1 0.005589611837663461 5.61862181880099 24.169802103356357 8.181325940085438 0 0 0
177 1 -0.00522406407095715 5.553388415164553 26.90403326541014 5.601735418245343 0 -1 0
318 1 -0.01331208537567352 4.314782668816643 25.298282928571286 12.108293289591153 0 0 0
180 1 0.004765068170710984 5.59911869832467 26.683252336531 10.796329536581391 0 -1 0
319 1 -0.00744471161904383 5.650540699457869 23.920598820296803 13.41143396183253 0 0 0
183 1 -0.03918810591177604 5.5654575387178875 26.52950387368953 16.11010277474787 0 -1 0
169 1 0.1007627970617239 3.8519999064334827 25.12996491577884 19.855952823150222 0 0 0
301 1 0.03485629795231095 3.9248180082250483 25.69877732480557 17.569055714864277 0 0 0