LAMMPS data file via write_data, version 23 Jun 2022, timestep = 635057

1417 atoms
3 atom types

0.2067609831876407 26.943239016811596 xlo xhi
0.2067609831876407 26.943239016811596 ylo yhi
0.24811317982519654 32.33188682017226 zlo zhi

Masses

1 28.0855
2 15.9994
3 1.008

Atoms # charge

4 1 0.4712286855893577 2.936589914386707 2.8051959418187695 0.44624281629301316 0 0 0
5 1 -0.02079005500658651 1.5269143319823733 1.4957139558031056 1.6462361645279313 0 0 0
840 1 0.005955749702010314 1.46314286560068 1.4450773767949077 6.889159786171503 1 1 0
7 1 -0.007861491715089743 2.821512466344667 2.7945259984288517 5.567533679694066 0 0 0
503 1 -0.009844977285984283 2.5646148254074204 2.583921779660387 10.71074851082656 0 1 0
387 1 -0.02993825858163569 0.7568406735606908 1.729018358898726 11.942419940097526 0 0 0
195 1 -0.04866466568336231 1.3193683436119026 1.2883496834431079 14.15218783093535 0 1 0
884 1 -0.02850552253830382 3.417302253680533 0.4673293869140862 13.771809975766692 1 1 0
17 1 0.312825686692484 1.1263153698756245 3.54726363669758 14.41986749090149 0 0 0
440 2 -0.6564291759619774 3.4787908306657465 2.015520521144127 16.869384115972146 0 0 0
18 2 -0.6271758051665072 0.2589852879259894 0.8317258885398439 17.153606260144667 0 0 0
255 1 1.082030528641895 2.6024405831500568 3.29934009324474 17.005307380525203 0 0 0
1390 2 -0.8364932078774913 0.2709491712510871 0.2274438666625116 19.73327854094108 1 1 0
225 2 -0.8856687057937767 0.8939194026683485 2.081180681599138 24.23799338304806 0 0 0
19 2 -0.8988662718318464 1.2314020550116036 1.4692319788610047 21.748530340555913 0 0 0
226 2 -0.7576983985913562 3.1270488726715544 2.4565665574961595 23.143620461413462 0 0 0
45 1 1.650022687675119 1.5987534832398238 2.4306280801790074 22.907713108179518 0 0 0
224 1 0.3812081864920218 0.9093167196564539 1.5447121852202272 28.746049051416243 0 0 0
355 2 -0.5883136357724601 2.4609045019491265 1.462805877800947 28.688105828726297 0 1 0
55 1 -0.02637567272932068 1.5277586580347464 6.773786244600111 1.6208882585454658 0 0 0
34 1 0.007745530423202446 2.866803287678349 5.528566806911201 2.990214320716071 0 0 0
1090 1 0.004983851932295752 1.4817320923263189 6.8363980666563595 6.9049241375704655 1 0 0
196 1 0.005782375819091648 2.772888183293446 5.35526152146432 8.086764878352252 0 1 0
35 1 0.0002841603383237079 1.5164767634673018 4.174130399863715 4.268027709465633 0 0 0
1403 1 0.007209697027080391 1.4259490521834088 4.0238551205896655 9.378913144349756 1 1 0
9 1 -0.003139522453213986 1.2486105683851123 6.407820048980093 12.216716837982675 0 0 0
386 1 -0.02230377581828842 2.6871024783028923 4.93315853565138 13.47265239302431 0 0 0
221 2 -0.5866027370129522 1.4924157990391769 3.6126944864429578 15.935951434265961 0 0 0
69 2 -0.7026531602816874 3.0974408930810235 4.440710214346924 17.924797205433666 0 0 0
238 1 0.8685579863794635 3.141138577236181 5.190255899435428 19.274362269686744 0 0 0
21 2 -0.7168872617960073 1.3799709795070085 5.0692053393709 20.496579371812462 0 0 0
23 2 -0.8317461126654613 1.1159389860547968 3.866520434774458 22.593968309748774 0 0 0
277 1 1.261713466511093 1.3453832810088746 5.2806603017222855 22.03278830220254 0 0 0
102 2 -0.7245594960842534 2.6806907224100254 5.77586531747416 22.717878527489788 0 0 0
1288 1 1.099370199297988 0.9111535579058486 5.604469090630034 28.256395233588496 1 0 0
51 2 -0.7235411727613033 2.165924989701092 4.690855177035745 28.17181014910189 0 0 0
1291 1 0.6571469912856684 0.9574673076399466 4.169190196290752 30.68757106878521 1 0 0
32 2 -0.5930851856578129 1.9757070844161568 3.766500027220239 31.79910458243411 0 0 0
81 2 -0.8201631631393727 0.9615614509063243 6.423401105227408 29.591614333421386 0 0 0
26 1 1.062528738302998 3.098558878609265 3.5739092579843748 28.77332587232017 0 0 0
53 1 0.008703976883835556 0.24322689198352265 8.158396976151286 2.970183307432427 0 0 0
57 1 -0.004753227239294874 2.8439201246471377 8.180838938967366 5.594587549611178 0 0 0
56 1 -0.001046445585811365 1.5409375183620573 9.53900896673138 4.277765920466663 0 0 0
1094 1 -0.007430685232879528 1.4331032912145922 9.318829117324901 9.748250929857507 1 0 0
367 1 -0.002323774602090892 2.623015643670518 7.627727203513551 10.801895012911086 0 0 0
1093 1 0.009717933961508773 1.7967065651280416 8.36007943200691 14.726374073154108 1 0 0
709 1 0.0007621088248108594 3.525108842652755 6.993083634261107 14.132833258308509 1 -1 0
1069 1 -0.01432971168720241 1.2203969416634828 7.883740369695465 16.916894081932238 1 0 0
93 2 -0.6654647890543455 3.0844268231089296 8.118175689852404 19.289618023101117 0 0 0
66 1 0.3297014844503248 3.101482534846972 7.1865564998686375 18.054537909000796 0 0 0
258 1 1.455080594716274 2.536405889026845 9.238285595415363 20.21905572185255 0 0 0
459 2 -0.7620989931953093 1.2067942758350725 8.667048855821482 20.797244923865538 0 0 0
298 2 -0.7608930543432583 0.3572167721394449 9.83339951627988 22.5389188215417 0 0 0
130 1 1.524838459412784 0.9389372374505505 9.93343845456858 23.986501471144944 0 0 0
49 2 -0.774271746366245 1.9416859146632894 8.780774739104022 24.168263178025818 0 0 0
70 1 0.6306175235198379 1.6820601747051296 7.728143174615243 27.392368112216843 0 0 0
76 2 -0.6151626475804113 1.7491057059107238 7.13810204752419 25.95442873086683 0 0 0
79 2 -0.6804011766208763 0.42184765939206664 8.635952059820067 27.413912980731403 0 0 0
50 1 1.173261549946602 2.3071644342533735 7.339022569523308 24.522041032865605 0 0 0
104 1 0.6198743773764879 2.9995638962638536 10.216739218104863 28.07310260764434 0 0 0
108 2 -0.67926366157716 1.5657137348031407 8.336013429254521 31.43571477305784 0 0 0
77 1 1.086923199421699 0.5691020545648687 7.704727005014465 30.39242711552572 0 0 0
54 1 0.6593228215868275 2.8327289363338712 8.06596483722499 32.31796179378498 0 0 -1
84 1 -0.002076720016043761 1.4660312153326052 12.160266826092156 1.657473327716989 0 0 0
83 1 0.002041361025530292 2.8580832914160537 10.87407751650054 2.9414953361300875 0 0 0
114 1 0.01213345653475203 2.8394835034441037 13.50884568705388 5.600796086605881 0 0 0
558 1 0.02612686358350816 1.530977509992709 12.150725755246333 6.984392880214054 0 0 0
984 1 -0.006069818268681242 2.7196200866040274 13.282278936354885 11.13424899261617 1 0 0
1092 1 0.0005325957056261169 0.24073670924275684 13.431693425907486 8.413524486526148 0 0 0
689 1 -0.008288938306142767 2.71933265187376 10.670732698044075 8.320296981089518 0 1 0
64 1 0.001719111148424365 1.5777481042412758 11.809686464678421 12.570051312659226 0 0 0
766 1 -0.004088684555486756 2.8644349890054692 10.331492071417786 13.820398852088257 0 0 0
58 1 0.00305973233451564 0.2883327307237399 12.714166979913221 14.257637087755056 0 0 0
124 1 0.6806339157179407 1.660443424792862 11.248744648103132 18.127638425817757 0 0 0
278 2 -0.7262413541117214 2.428471113620965 10.42682531304196 19.199932499924998 0 0 0
1349 2 -0.6318147752538196 0.8027261388976432 12.346095302496435 18.806429092712992 1 0 0
715 1 -0.05636029244671658 3.049509261243963 12.45359022918602 16.760451849394506 0 0 0
458 2 -0.7714767993478515 2.8353939714408942 12.46668280649088 22.35626436628193 0 0 0
297 2 -0.7386807869709819 0.7422762200103357 13.281279692522062 21.17395879858929 0 0 0
99 1 0.6702843840252607 1.9354785945433952 12.078681794985435 25.843380162616764 0 0 0
302 2 -0.6817089531809304 1.6835508102086605 11.176669303773185 24.59207140896754 0 0 0
103 2 -0.5506155221766993 2.3141975192848023 11.28427150207636 27.145390543007384 0 0 0
280 2 -0.6132333254179041 3.1905952889794675 10.807467972877733 29.534855156956915 0 0 0
284 2 -0.7085410032706104 0.2892568770649396 13.202049725757698 30.086905149480586 0 0 0
265 2 -0.7553078812998766 3.515345827980846 13.364287306412487 29.715695785408162 0 0 0
110 1 0.03517167451662281 2.6994039759536927 13.361203790691741 32.2758987508682 0 0 -1
112 1 0.006240563653326994 2.883648322872036 16.183041623449483 2.8796094021988554 0 0 0
113 1 -0.004598761517496185 1.5530113561787398 14.878065198509406 4.253965385405762 0 0 0
115 1 0.002819130159100125 0.23805000302532492 16.1982891757651 5.604919862771327 0 0 0
1165 1 0.0175816335689436 2.8536369700527713 16.13586865207698 8.243913412409054 1 0 0
924 1 0.02469566624738912 1.6400108047890436 14.768351858525133 9.67705315588653 1 0 0
1024 1 -0.004766546342100199 0.860511117026974 16.627661955976393 10.801470047832959 1 0 0
590 1 0.005068200720980028 2.485737602821282 15.220843760706936 13.947737924476755 0 0 0
1004 1 0.02423136580303573 1.64139235825617 13.93367549033388 15.658811376878369 0 0 0
904 1 0.004429872198989972 0.4553714471062917 15.826443557100351 12.929768658710813 1 -1 0
710 1 0.0166751939633188 0.6847949537627422 15.500393821577548 17.10629664114576 1 -1 0
454 1 0.0221487789066365 2.5949868599675945 16.764559931133412 17.595795870577152 0 0 0
301 2 -0.8794013318782905 1.521677503210329 14.411476039221306 23.319601440872187 0 0 0
256 2 -0.7865070865155529 2.904567327600028 14.688630814549281 21.270716818845763 0 0 0
675 1 1.621374826636352 1.9663337275396977 13.699011234432543 22.02783031433218 0 0 0
133 1 1.605762685848647 0.547005934380636 15.470608926547746 23.86296818532842 0 0 0
136 1 0.5893273940415006 1.0270569692142173 16.16302948053044 28.033437773206906 0 0 0
318 2 -0.678951789343085 3.404534404033184 16.194879632034368 26.056711591703785 0 0 0
157 2 -0.7847496458604629 1.1983858107048617 16.539223217323148 24.79327201596623 0 0 0
137 2 -0.6414076104045875 1.0111839625830452 15.151997956584708 31.682847724968532 0 0 0
105 1 0.858784871491702 1.3832784352845546 14.285385957518576 30.456767038179667 0 0 0
100 2 -0.5970664021554538 2.1593274900870307 15.502665574275216 28.884405025426318 0 0 0
139 1 0.01474670587936664 0.27165981338286754 18.878075956504727 2.9734300567782403 0 0 0
140 1 0.04151614625848068 2.8580559257209366 18.96682303820982 0.2984396270752761 0 0 0
141 1 -0.01325950485679032 1.572119412639434 17.546511429069266 1.5685206408874715 0 0 0
142 1 0.00476896268236459 2.8755570549067353 18.87602557997877 5.562095084430962 0 0 0
963 1 0.001083916800980182 1.5739700700066352 17.537067771109175 6.9045105235056665 0 0 0
1003 1 -0.0009193773605226038 0.24754421115652564 18.937754123565593 8.144214584575225 1 0 0
164 1 -0.01055095315775522 1.54567522740432 20.254782096169315 4.285163757308775 0 0 0
1367 1 -0.005697747521356517 2.371559550037085 18.440285556330533 10.8405064186555 1 0 0
861 1 -0.01401098007172909 1.5313744781278453 20.193581318847233 9.552483593050084 1 0 0
670 1 -0.005920916622058722 2.428105750453372 19.318813186046196 13.008853631464362 0 0 0
63 1 -0.01220411337413543 0.3643259891433079 19.424956308184857 13.917552221510226 0 0 0
1386 1 -0.01197157350200181 0.33459642370855036 19.84030413929243 17.86142679199016 1 0 0
295 1 -0.005810699432629629 2.4820774412005284 19.044300808555704 18.092095945215817 0 0 0
316 2 -0.6279519664033992 3.2135921294105203 19.700511725949326 21.317851087561 0 0 0
156 2 -0.6951838437394781 1.9247522618214403 18.460188507386405 26.54089678187963 0 0 0
339 1 1.216237401949054 3.3524845060228237 19.16834337926531 27.909291679339663 0 0 0
319 1 0.9669424186493565 2.058522461887071 16.98209726132709 26.014948930751064 0 0 0
181 1 0.7874780463082792 0.31245888366335267 19.79168048958218 26.012984854222744 0 0 0
159 1 0.4063392556348466 1.2494173060394358 19.904776655273395 31.06230902224236 0 0 0
185 2 -0.6700496034450183 3.4909687222742813 18.78355422829507 29.42866284218832 0 0 0
161 1 0.2372442608686139 0.23194530435838717 21.591840036512355 0.258269643021525 0 0 0
162 1 -0.01667961542836261 2.8338688126109552 21.608000338560267 2.9530700919287964 0 0 0
163 1 0.03815560231314181 1.4974187744448895 22.95244267534846 1.6392607889571535 0 0 0
1387 1 -0.001080338705914015 1.5003731680252423 22.88772131454326 6.91842966069982 1 0 0
310 1 0.006381638617368748 2.846030994656511 21.506242680950155 8.20620820337404 0 0 0
118 1 0.01984641131116632 0.34582804306166465 21.686633349462827 10.832194810833021 0 0 0
1118 1 0.02324900297626539 3.258113070509804 21.43674386849836 13.267254884453438 1 0 0
314 2 -0.5740089998188315 0.690566171626583 23.38419628248304 15.10587722763886 0 0 0
216 1 -0.04536215816009354 3.4879056475611248 21.910397853169854 15.51356962711754 0 -1 0
1026 1 0.009886332397168296 1.7171604679898664 22.82784648280041 12.290406659907575 0 0 0
1171 2 -0.5678104290192806 0.6709486746393345 22.57800200038363 17.784409490225688 1 0 0
331 1 0.5849467511432586 1.3007343432741516 22.548931838281234 16.294989590611596 0 0 0
182 2 -0.6750033366528757 1.6436332840066097 20.58182886075872 23.44427523915854 0 0 0
350 2 -0.8310766693310967 3.4395892256408005 21.929566821372926 22.51860863070025 0 0 0
334 1 1.46118229735418 3.0567525334622068 20.440515888606186 22.737819025108195 0 0 0
176 1 0.7663322473307821 0.8441098419098709 21.490205313599578 24.42736275232899 0 0 0
138 2 -0.5002764804543963 1.641260577859101 21.210522589220375 31.77284823365258 0 0 0
3 1 0.03960938632015567 2.808048486081464 26.878847966615 2.9721691667819163 0 -1 0
1 1 0.1805039577640046 0.30287766732927196 26.82706565845907 0.3475401093394652 0 -1 0
190 1 -0.0004545620856741053 2.808150193839819 24.209829578119496 5.558074842520461 0 0 0
534 1 -0.001670757392491756 2.70828521300846 26.77528552746283 8.210100757668195 0 0 0
189 1 -0.002214605244400474 1.4690844179974891 25.56617581409232 4.279126969231594 0 0 0
1095 1 0.0004174165062936219 1.3798076773305503 25.487205066213686 9.635401297938355 1 -1 0
511 1 -0.01903331382861353 2.818391768436672 24.169604695513417 10.875573154916074 0 0 0
89 1 0.5671714337606227 0.7452795488652764 24.292296460684337 13.821723135828904 0 0 0
198 2 -0.8686859561312874 2.5543576999861357 26.38911155246437 20.670953223125927 0 0 0
1412 2 -0.8730238429717952 0.6003471073596033 25.88968991021148 22.092158607541663 1 0 0
1406 1 1.760220443071546 1.1314160360124812 26.848816048221632 21.015715015370834 1 0 0
210 2 -0.7533779064199353 1.8541367786678482 24.587760175476973 26.60871031197901 0 0 0
228 1 1.474974935167144 2.9156596908760664 24.12393119001237 27.692953165157153 0 -1 0
1410 2 -0.7963240682838484 0.5334631087440558 25.560031874954245 24.596534304257396 1 0 0
204 1 1.061468176420726 1.7501854254742368 25.766278785154977 25.58440357416653 0 0 0
31 2 -0.6936308864828526 2.885582644018767 26.743575339680795 26.20585894744118 0 -1 0
29 1 0.2568330007399444 0.24152642285287484 26.770392006110708 27.061620006351223 0 -1 0
30 2 -0.7028800979210514 2.239021771068511 23.87837567156716 29.077459017573943 0 -1 0
207 1 0.7961342693542155 1.599208634692437 24.621774906455 30.281985201055907 0 0 0
1271 1 -0.06448346643823931 0.3053567974600834 26.573344363518103 30.17526224290768 1 -1 0
208 2 -0.6916736543789669 0.3144679881764745 23.812179888380204 30.55889014442524 0 0 0
209 2 -0.4915256891085287 1.8241269027961717 25.52995857465353 32.328807670321105 0 0 0
188 1 0.2109616605165458 2.7458670510523913 24.25813100117544 32.29836099461427 0 0 -1
213 1 0.02800186777440152 4.1793020456217675 1.5107154635406115 4.227204126053356 0 0 0
212 1 0.03519107477266011 5.583269648160476 2.845177696321962 2.950736264406335 0 0 0
533 1 0.004357589615679114 6.810448048355056 1.4460715874562864 6.797142561694516 0 1 0
678 1 0.01645524810248546 5.456967237746979 2.6916390019611587 8.16589177557516 0 0 0
167 1 -0.001777312990743331 4.070187454960454 1.3453089144428492 9.466192472748022 0 1 0
860 1 -0.005670092590001126 6.656927622264931 1.124733567169294 12.036211098715514 0 1 0
509 1 -0.01337549342562717 4.937037211777874 2.0981531257012573 13.12441823496564 0 1 0
906 1 -0.04197054549300869 5.732250588266977 2.8090075832693615 15.067119819212191 1 0 0
223 2 -0.5639579456512999 5.81086958878155 1.0895945611351052 17.698368136040305 0 0 0
293 1 0.6432552034189176 4.820877892387569 1.3016134775341643 16.513901739048226 0 0 0
174 1 0.3497219297403477 6.361211195828876 1.772026744184812 18.991482034838814 0 1 0
348 1 0.653196955409991 6.214003124015654 1.923024360352106 23.55196269057361 0 1 0
257 1 0.6784686601894012 4.281519724116057 3.153074996704483 23.88494738136818 0 0 0
380 2 -0.7146868032120941 5.177864054567488 0.580891909490582 27.753375247223115 0 0 0
381 2 -0.642728775109823 6.7998388620853785 1.9144673076965175 24.996805913300264 0 0 0
52 2 -0.6506214444870945 4.093666204369166 3.3010070373623126 27.604520411617067 0 0 0
230 2 -0.6329876031089 4.533748102349454 1.835188026796318 31.525292181220905 0 0 0
244 1 1.116224504076758 5.35504113863178 2.8910969845405887 30.702309139611035 0 0 0
425 2 -0.7198028695202457 6.143020780199311 2.101867019660869 29.605312961474116 0 0 0
377 1 1.229487664278262 6.467190951192666 1.0123014210654664 28.54345257887022 0 0 0
231 1 -0.0523070726923942 4.22951597079222 4.214705000628686 1.7122696544367026 0 0 0
232 1 0.4358212793213084 5.538601370381799 5.43470453959525 0.30158064524114786 0 0 0
248 1 -0.01011989361755866 4.210387149001731 6.89084585621408 4.255692688480504 0 0 0
234 1 -0.005836109778452003 5.528377681582966 5.507613734896263 5.551271069769334 0 0 0
11 1 0.00553302512282261 4.208652936477138 4.101633381274097 6.8324982000097885 0 0 0
613 1 0.00661182735612164 6.86438145952345 6.80796691930536 6.881725026011526 0 0 0
8 1 0.002457337513802164 5.367003877527864 5.139359541717875 10.706998560084937 0 0 0
1187 1 0.006396054507560291 4.121325197258038 6.585588975602009 9.403130326770185 0 1 0
1121 1 0.000947310041624308 6.86442821021613 3.94444258303526 9.47685778432188 1 0 0
217 1 -0.002777381078908812 3.9689557303955754 3.813140779894299 11.978349269145287 0 0 0
813 1 -0.005903617359671598 6.471261113400568 6.7394805234012125 11.86962608655718 0 0 0
557 1 0.04593934122908928 4.068720429519681 4.326506998882307 15.392089568742767 0 0 0
272 1 0.03953393613890117 5.185279383587801 6.329712848521087 15.533156108766343 0 0 0
368 1 0.003776701715825295 6.869472279402101 6.857094571788301 14.101735643283723 0 0 0
43 2 -0.6672662760934048 4.654351369111493 5.15340185305478 19.626775783591487 0 0 0
47 2 -0.6687185231157385 5.166262042219098 5.006037255996132 21.995355688094875 0 0 0
98 1 1.194232829944403 5.739211670551508 5.578059334880303 20.672481290432852 0 0 0
72 1 0.6469149633133634 4.146315155656318 5.290375469639283 23.120114309351433 0 0 0
239 1 0.9988216808675349 5.130574892191398 3.981571249984744 26.67924376706517 0 0 0
423 2 -0.7510530793866633 5.547449560128003 5.396743029191735 27.207799204539192 0 0 0
242 2 -0.693895152761859 4.515154043052635 3.892042821573899 25.237363179238375 0 0 0
243 1 1.258313546092859 6.425254569237748 6.357890408761765 28.07179277571896 0 0 0
28 2 -0.6648234757785412 4.069776129257265 4.266217108611096 29.843248023540603 0 0 0
245 1 0.7194302222182188 4.545730991440358 6.293933670186875 30.48994171271272 0 0 0
395 2 -0.5776375083708518 6.2589527306252934 3.6667445215078134 31.747180532702426 0 0 0
246 1 -0.09479813529390883 4.111861564412548 9.541369326307862 1.5410688495532765 0 0 0
247 1 -0.008312518357696724 5.5085725663086995 8.21734422546529 2.8609451607375798 0 0 0
400 1 0.0007005195959377541 6.833415705604156 9.544138093325303 4.244041013702503 0 0 0
456 1 0.01617059741745677 4.1530732773720045 9.497115856574053 6.935229918908999 0 0 0
1303 1 0.008266327557532996 5.44855213326043 8.069848834738565 8.190027560013526 1 0 0
12 1 0.00134144352461597 4.4170191423405 7.718488780159668 12.198123026043541 0 0 0
554 1 0.009985601826366201 6.836316329315584 9.40857432586221 9.434348722124222 0 0 0
737 1 0.02605392759756575 6.44560742363509 9.108077390664713 14.132217597487257 0 0 0
1025 1 -0.02875489181174604 5.712822596468645 9.802169941194496 16.170147178013295 0 0 0
1280 1 -0.007204992678740321 4.80232579507121 9.773669417684513 12.685681292063567 1 0 0
479 1 -0.0110861567514693 5.16657031761201 7.787216401566803 17.239691232793444 0 0 0
415 2 -0.7478691486673574 3.6249226199371902 9.590877718942924 21.26539829061093 0 0 0
260 2 -0.6704292047659207 5.391460443441763 7.986579164208662 23.236570158967147 0 0 0
240 2 -0.7753249733985672 5.448062276694938 7.091967307684689 20.87368804982395 0 0 0
598 1 1.278412848614388 5.23498636211996 8.353356872605158 21.7466166974042 0 0 0
419 2 -0.7947498785437703 6.5328567333942615 9.12682510550333 21.43551468063939 0 0 0
422 2 -0.6901557615875903 6.468315648705263 7.664380835239313 27.246170314865537 0 0 0
626 1 0.729477772870014 6.021433779410153 8.545972933888295 26.054834278967498 0 0 0
281 2 -0.6481540323073349 3.8251720876201145 7.338170491651259 24.919227160974142 0 0 0
259 1 0.6012296945237429 5.260820976677083 6.983954110605716 24.410963474967645 0 0 0
263 2 -0.6356377165082401 3.867789326303371 7.060046149868042 31.669917784473284 0 0 0
261 2 -0.593425998950757 5.920101141891688 9.686019568078253 31.3821541846702 0 0 0
428 2 -0.6123721651752432 5.777826652509336 7.103352602443527 29.888855120991717 0 0 0
266 1 0.6819179356786513 5.552061552689808 10.82229479466692 0.29304856653863043 0 0 0
431 1 -0.03411922981511317 6.880361290302655 12.248711567831823 1.579983358583785 0 0 0
286 1 0.01097810186142267 5.4961463849809125 13.556987231926772 2.886517128409074 0 0 0
267 1 -0.0117547809878825 4.196082562735434 12.214988805874162 4.254222747758515 0 0 0
268 1 0.01125336593686544 5.487722246621902 10.843390921013315 5.588877449078445 0 0 0
65 1 -0.01459605940284802 5.65193560538792 10.790975178357122 10.83056229022504 0 0 0
122 1 0.2788074381187622 3.942742061855962 11.880657125897006 9.81421118422665 0 0 0
416 2 -0.5001089398371271 4.597153952137407 12.903572563330865 8.84792065022057 0 0 0
636 1 0.002739228573916855 4.365883071707875 11.468331639864026 15.170918483366487 0 0 0
271 1 0.004668322576315782 5.503153658079588 13.003122392527816 13.683120907107734 0 0 0
460 1 0.009587322126388513 4.789523258818175 12.833296044060736 18.15807141945379 0 0 0
463 2 -0.7236874839541788 5.055846840130573 11.65571855989689 23.380277351648452 0 0 0
642 1 0.2815639292073896 5.141704863005214 12.263129813550952 20.406975679839444 0 0 0
439 1 0.9555181219697507 3.964034178570202 11.437678893130219 22.311227135323616 0 0 0
462 2 -0.6377687753611951 4.9694324151922284 10.918487803595536 25.918389598382344 0 0 0
461 1 1.378012677356842 5.524763304256607 11.948334310549292 24.847295445463352 0 0 0
441 1 0.3140774974299642 5.241051573853193 10.32373496935286 27.331540900712504 0 0 0
300 2 -0.7024401629265653 4.869906697371603 13.32103733893927 25.248365754612557 0 0 0
107 2 -0.6761684763688709 4.730035459795892 11.847852511243916 31.54707380110713 0 0 0
78 1 1.045185574081659 3.6052570544911657 12.02052464942384 30.486054379653755 0 0 0
285 1 0.03259755659911463 4.103848925144867 14.78496113609457 1.4720417085392097 0 0 0
448 1 0.0005732458167382812 6.861924025050345 14.86982289748965 4.221275939180953 0 0 0
289 1 -0.006510111591158441 5.520762822244551 16.222499079038357 5.521348347277075 0 0 0
818 1 0.01046288608806329 4.177847658231476 14.907332331837056 6.835631339415898 0 0 0
477 1 0.2749801085288133 5.671562603911913 13.658157418658535 8.023544508655297 0 0 0
294 1 0.01988501265175464 5.302409069131215 15.891466330332172 10.917635721644606 0 0 0
508 1 -0.007774713144263957 6.860798737863793 14.767599911370727 9.598160629922711 0 0 0
539 1 0.01565740438215229 4.13307497586167 14.462042411371556 12.458255214114963 0 0 0
296 1 0.006378959834384856 5.729767337312243 15.982712782349545 15.837340815505016 0 0 0
475 1 -0.001600017617682366 3.5512964790030384 16.537238913171777 15.469736083612144 0 0 0
1264 1 0.01115241865907802 5.653074609383819 14.861671377158357 17.774587481999205 1 -1 0
478 1 -0.03898847290408329 4.329753938215122 16.175374116780922 19.058883742740377 0 0 0
179 2 -0.5696195741573644 5.2611103850674645 13.792592178307705 20.778307115855494 0 0 0
152 1 1.042801063836476 4.4070153388238875 15.064604313232495 21.159586492701244 0 0 0
483 1 0.8684510746578327 5.9427832192205265 16.29519649366256 23.492903390487434 0 0 0
492 2 -0.6734959781635641 5.106463081731771 16.040965534922403 22.18397500514257 0 0 0
443 2 -0.640197365835146 4.193208169061195 13.98316026171006 27.478691146828663 0 0 0
464 1 0.8068270343043396 3.734720792582686 14.056799737759421 25.988857746125603 0 0 0
283 2 -0.6607789088354146 5.468459487308052 14.862978072578587 29.522343367156314 0 0 0
282 1 1.189946193693873 4.061499849463667 14.57707471295453 28.92323550282547 0 0 0
468 1 0.6207256004223536 6.603345332544219 15.514605353592756 30.35419114476425 0 0 0
287 1 0.3714888091119348 5.5202529848574535 16.159282298242598 32.32503223008708 0 0 -1
305 1 0.004395764370237573 5.535251540286141 18.88477086719859 2.9032400138146826 0 0 0
470 1 -0.03273265650897578 6.872730698665738 17.492869890259204 1.607848982745901 0 0 0
306 1 0.004430873833179763 4.194379564226222 17.553994330521718 4.207089337424315 0 0 0
1005 1 -0.001522013111698944 6.8305707737458095 17.502188017742096 6.901087727130658 0 0 0
455 1 0.004735992963552975 4.189221771326627 20.1770635718655 6.908079094626819 0 0 0
250 1 0.002856579932513148 5.429463891751753 18.76684692506558 8.241246906519686 0 0 0
501 1 -0.01292629978266831 6.848829755802759 20.191499015259563 4.261022415928142 0 0 0
325 1 -0.0001811078269152444 4.111160981583872 17.431110811281968 9.650989848923986 0 0 0
1384 1 0.009399278030280653 6.765899117046717 17.333271707243316 11.868372411293278 1 0 0
505 1 0.001056517680593345 6.887877339818848 20.111691465981806 9.363473046203847 0 0 0
235 1 0.0009237878067692024 5.7054428064237195 18.92483911297791 13.13482480779267 0 0 0
474 1 -0.006500551353857034 3.8936081188974927 18.508109459629853 14.478604389190545 1 0 0
131 1 0.2491744859472763 5.230049726828751 18.206509627742072 19.549868456557792 0 0 0
1346 2 -0.537641638174051 5.775721706868338 18.855526345175626 18.229744514870568 1 0 0
173 1 0.2338841444309975 5.9519465337677 19.605377191047438 16.86467722349786 0 0 0
1344 1 0.2883065415484856 3.82038597255133 20.011320019137134 19.89737465247814 1 0 0
269 1 -0.03871992490183356 3.7735811307437745 19.807818484628296 16.32912881373307 0 0 0
202 2 -0.7949498551010157 4.08658073856352 19.84931665078189 23.737072122303594 0 0 0
337 2 -0.5867662668813619 6.570860528082854 20.245054596773606 23.774861043538024 0 0 0
186 2 -0.7455470033599176 4.542412415046319 18.44594772632904 27.246968314816296 0 0 0
493 2 -0.6829371114949129 6.4848663917207645 17.08312095876686 27.156847582075915 0 0 0
336 1 1.174944945615147 5.141047519175351 17.320493435519232 26.37291460354727 0 0 0
155 2 -0.6812635663814707 5.520451202858381 17.851151519521224 24.968100817483737 0 0 0
177 1 1.292774802482092 5.32449431078439 19.89527645536702 24.656861726375645 0 0 0
158 2 -0.5779877242434883 4.556855197041664 17.122891473221923 31.522128549034285 0 0 0
320 1 0.6248891531295173 4.340589086623651 18.461952398257058 30.72175349288494 0 0 0
524 1 0.6741272724443407 6.645270828280283 19.187640001872488 30.841080138787596 0 0 0
526 2 -0.5731601645449603 6.31383041269605 20.23710915901973 31.995422779556453 0 0 0
500 1 -0.03286088909848521 6.887223761820569 22.842017298593767 1.559384186515591 0 0 0
323 1 0.3457775796729793 5.466117983640435 21.518690098317677 0.27403328212516753 0 0 0
322 1 -0.00633927269939627 4.156488223658787 20.266458984799723 1.658672648692621 0 0 0
326 1 0.006169923468115672 5.4985259698921185 21.509250742966824 5.559734414984736 0 0 0
38 1 0.003377950073074461 6.856902985649278 22.84329482433009 6.806480893640463 0 -1 0
324 1 -0.01782652105817954 4.184581033676101 22.886347122887024 4.271933828072884 0 0 0
711 1 0.007437335456142953 5.947438246746467 21.882411349317554 10.45394145387123 0 -1 0
812 1 0.01581851249946547 4.142614773713505 22.886780428500707 9.47311627196553 0 0 0
121 1 0.01228003120008418 5.43422394212835 21.158807937408703 12.530369094971268 0 0 0
516 1 0.01181858447928687 5.689777246380309 22.824198148126207 15.432128601698762 0 0 0
865 1 0.2832089086001635 5.938972565930644 21.001430189911975 20.524493242783155 0 0 0
199 1 1.578401839731195 4.4540371243643895 23.013678231380652 22.102028770455412 0 0 0
180 2 -0.695627030720576 5.382731963629524 22.330573178952566 21.064353735910395 0 0 0
335 2 -0.8114819010317591 5.333838003855185 23.57587524671621 23.25078834260748 0 0 0
205 1 1.63780941383799 4.648588419215042 21.72665343799512 27.01263321675669 0 0 0
352 2 -0.7832116391739437 5.14657221398401 21.072239806282248 25.670683500338857 0 0 0
338 2 -0.8331970018248009 5.81603312994733 22.09623807884 27.956598744992956 0 0 0
356 2 -0.7780173971337381 3.7166916750194803 20.66388919489172 27.687865000525168 0 0 0
549 2 -0.8078239752255446 3.777892358460623 23.014989337914866 26.982187065240975 0 0 0
340 1 0.2995160769167661 4.060091595446361 25.471833935437644 1.6548996401744849 0 0 0
341 1 0.02667023483631245 5.506418191392274 24.155112963632746 2.8989500032076774 0 0 0
353 2 -0.5854043712541634 5.156101095738178 26.509985143893147 1.7224305099372275 0 0 1
531 1 0.03574943140242322 6.848263974932858 25.542892287364694 4.206453293390282 0 0 0
211 1 0.7829252744550027 5.504812606356862 26.88553285869218 0.2762911532221632 0 -1 0
882 1 0.00437801769086945 4.110985148220265 25.558469977130596 6.841585395875569 0 0 0
1342 1 0.0003102978811828916 5.411085187266726 24.137469433555207 8.052542254056661 1 0 0
214 1 0.001213701152698213 5.472531993830191 26.860956375189897 5.510212233836355 0 -1 0
907 1 0.007696807231362169 6.70323657335399 25.39688294093329 9.372031244259366 1 -1 0
363 1 -0.01142205949275067 5.359028356777067 26.651804889932475 10.712360277083729 0 -1 0
220 1 0.2384145478526354 3.9701907028458185 25.621398328552726 12.20761372115793 0 -1 0
575 1 0.2619353474268279 5.651438128789604 25.001471398047123 14.61096876094085 0 -1 0
1388 2 -0.4850083994677316 4.813281906405059 24.78443553165005 13.266629654784403 1 0 0
1277 1 0.01153447539581103 3.9805521287602255 26.097619006076325 15.682760544653249 1 -1 0
887 1 0.6182187308074665 6.455991403396826 26.37745695305304 20.022121809641824 0 0 0